                         Program Version 6.0.1  -  RELEASE   -
|  1> *xyz 0 1
|  2>  C        0.607197320      1.398243050      0.396447700
|  3>  C       -0.607196950      1.398242590     -0.396449170
|  4>  C       -1.809919390      0.825740375      0.002524460
|  5>  C       -2.965118484      0.892667929     -0.821105747
|  6>  C       -4.147219868      0.319190320     -0.425362280
|  7>  C       -4.239060706     -0.342659980      0.795940601
|  8>  C       -3.120740191     -0.423926035      1.621426924
|  9>  C       -1.930406325      0.143266322      1.243208193
| 10>  C        1.809919584      0.825740415     -0.002525418
| 11>  C        1.930406218      0.143264524     -1.243208151
| 12>  C        3.120739733     -0.423928566     -1.621426371
| 13>  C        4.239060463     -0.342661403     -0.795940344
| 14>  C        4.147219915      0.319191001      0.425361630
| 15>  C        2.965118757      0.892669392      0.821104567
| 16>  H        0.570401843      1.895580184      1.360293836
| 17>  H       -0.570401181      1.895578673     -1.360295873
| 18>  H       -2.896703340      1.405843789     -1.769755970
| 19>  H       -5.015853454      0.380519043     -1.065639763
| 20>  H       -5.172333419     -0.791257491      1.100592597
| 21>  H       -3.193402199     -0.939873394      2.568338257
| 22>  H       -1.059215294      0.077885689      1.878685176
| 23>  H        1.059215016      0.077882992     -1.878684946
| 24>  H        3.193401703     -0.939877431     -2.568336835
| 25>  H        5.172332976     -0.791259442     -1.100591706
| 26>  H        5.015853767      0.380520415      1.065638666
| 27>  H        2.896703983      1.405846642      1.769753860
| 28>  *
| 29>
| 30>  %pal
| 31>    nproc 8
| 32>  end
| 33>  %maxcore 3000
| 34>
| 35>
| 36>                          ****END OF INPUT****
|  1>     ! xTB Freq
|  2>
|  3>                          ****END OF INPUT****
FINAL SINGLE POINT ENERGY       -35.998041455380
FINAL SINGLE POINT ENERGY       -35.998041455380

DIPOLE MOMENT
-------------
                                X             Y             Z
Total Dipole Moment    :      0.00000       0.05600      -0.00000
                        -----------------------------------------
Magnitude (a.u.)       :      0.05600
Magnitude (Debye)      :      0.14234

VIBRATIONAL FREQUENCIES
-----------------------

Scaling factor for frequencies =  1.000000000  (already applied!)

     0:       0.00 cm**-1
     1:       0.00 cm**-1
     2:       0.00 cm**-1
     3:       0.00 cm**-1
     4:       0.00 cm**-1
     5:       0.00 cm**-1
     6:       9.10 cm**-1
     7:      63.27 cm**-1
     8:      75.22 cm**-1
     9:     143.25 cm**-1
    10:     145.14 cm**-1
    11:     271.01 cm**-1
    12:     295.88 cm**-1
    13:     303.10 cm**-1
    14:     366.65 cm**-1
    15:     375.73 cm**-1
    16:     431.72 cm**-1
    17:     445.59 cm**-1
    18:     458.90 cm**-1
    19:     510.11 cm**-1
    20:     582.12 cm**-1
    21:     584.64 cm**-1
    22:     586.38 cm**-1
    23:     647.81 cm**-1
    24:     650.49 cm**-1
    25:     718.11 cm**-1
    26:     720.46 cm**-1
    27:     756.09 cm**-1
    28:     775.75 cm**-1
    29:     850.17 cm**-1
    30:     852.68 cm**-1
    31:     858.09 cm**-1
    32:     859.89 cm**-1
    33:     880.30 cm**-1
    34:     882.13 cm**-1
    35:     923.17 cm**-1
    36:     923.27 cm**-1
    37:     924.98 cm**-1
    38:     925.03 cm**-1
    39:     969.73 cm**-1
    40:     970.07 cm**-1
    41:    1072.02 cm**-1
    42:    1072.17 cm**-1
    43:    1112.79 cm**-1
    44:    1114.20 cm**-1
    45:    1163.78 cm**-1
    46:    1171.23 cm**-1
    47:    1178.54 cm**-1
    48:    1179.62 cm**-1
    49:    1190.58 cm**-1
    50:    1197.51 cm**-1
    51:    1224.73 cm**-1
    52:    1285.11 cm**-1
    53:    1289.35 cm**-1
    54:    1316.05 cm**-1
    55:    1317.39 cm**-1
    56:    1365.83 cm**-1
    57:    1406.21 cm**-1
    58:    1436.64 cm**-1
    59:    1440.25 cm**-1
    60:    1479.03 cm**-1
    61:    1486.60 cm**-1
    62:    1529.75 cm**-1
    63:    1529.90 cm**-1
    64:    1586.63 cm**-1
    65:    1587.69 cm**-1
    66:    3002.69 cm**-1
    67:    3006.24 cm**-1
    68:    3066.61 cm**-1
    69:    3066.66 cm**-1
    70:    3069.52 cm**-1
    71:    3069.74 cm**-1
    72:    3078.22 cm**-1
    73:    3078.29 cm**-1
    74:    3083.36 cm**-1
    75:    3083.77 cm**-1
    76:    3093.99 cm**-1
    77:    3094.01 cm**-1

--------------------------
THERMOCHEMISTRY AT 298.15K
--------------------------

Temperature         ...   298.15 K
Pressure            ...     1.00 atm
Total Mass          ...   180.25 AMU
Quasi RRHO          ...     True
Cut-Off Frequency   ...     1.00 cm^-1

Throughout the following assumptions are being made:
  (1) The electronic state is orbitally nondegenerate
  (2) There are no thermally accessible electronically excited states
  (3) Hindered rotations indicated by low frequency modes are not
      treated as such but are treated as vibrations and this may
      cause some error
  (4) All equations used are the standard statistical mechanics
      equations for an ideal gas
  (5) All vibrations are strictly harmonic

freq.       9.10  E(vib)   ...       0.58
freq.      63.27  E(vib)   ...       0.51
freq.      75.22  E(vib)   ...       0.49
freq.     143.25  E(vib)   ...       0.41
freq.     145.14  E(vib)   ...       0.41
freq.     271.01  E(vib)   ...       0.29
freq.     295.88  E(vib)   ...       0.27
freq.     303.10  E(vib)   ...       0.26
freq.     366.65  E(vib)   ...       0.22
freq.     375.73  E(vib)   ...       0.21
freq.     431.72  E(vib)   ...       0.18
freq.     445.59  E(vib)   ...       0.17
freq.     458.90  E(vib)   ...       0.16
freq.     510.11  E(vib)   ...       0.14
freq.     582.12  E(vib)   ...       0.11
freq.     584.64  E(vib)   ...       0.11
freq.     586.38  E(vib)   ...       0.11
freq.     647.81  E(vib)   ...       0.09
freq.     650.49  E(vib)   ...       0.08
freq.     718.11  E(vib)   ...       0.07
freq.     720.46  E(vib)   ...       0.07
freq.     756.09  E(vib)   ...       0.06
freq.     775.75  E(vib)   ...       0.05
freq.     850.17  E(vib)   ...       0.04
freq.     852.68  E(vib)   ...       0.04
freq.     858.09  E(vib)   ...       0.04
freq.     859.89  E(vib)   ...       0.04
freq.     880.30  E(vib)   ...       0.04
freq.     882.13  E(vib)   ...       0.04
freq.     923.17  E(vib)   ...       0.03
freq.     923.27  E(vib)   ...       0.03
freq.     924.98  E(vib)   ...       0.03
freq.     925.03  E(vib)   ...       0.03
freq.     969.73  E(vib)   ...       0.03
freq.     970.07  E(vib)   ...       0.03
freq.    1072.02  E(vib)   ...       0.02
freq.    1072.17  E(vib)   ...       0.02
freq.    1112.79  E(vib)   ...       0.01
freq.    1114.20  E(vib)   ...       0.01
freq.    1163.78  E(vib)   ...       0.01
freq.    1171.23  E(vib)   ...       0.01
freq.    1178.54  E(vib)   ...       0.01
freq.    1179.62  E(vib)   ...       0.01
freq.    1190.58  E(vib)   ...       0.01
freq.    1197.51  E(vib)   ...       0.01
freq.    1224.73  E(vib)   ...       0.01
freq.    1285.11  E(vib)   ...       0.01
freq.    1289.35  E(vib)   ...       0.01
freq.    1316.05  E(vib)   ...       0.01
freq.    1317.39  E(vib)   ...       0.01
freq.    1365.83  E(vib)   ...       0.01
freq.    1406.21  E(vib)   ...       0.00
freq.    1436.64  E(vib)   ...       0.00
freq.    1440.25  E(vib)   ...       0.00
freq.    1479.03  E(vib)   ...       0.00
freq.    1486.60  E(vib)   ...       0.00
freq.    1529.75  E(vib)   ...       0.00
freq.    1529.90  E(vib)   ...       0.00
freq.    1586.63  E(vib)   ...       0.00
freq.    1587.69  E(vib)   ...       0.00
freq.    3002.69  E(vib)   ...       0.00
freq.    3006.24  E(vib)   ...       0.00
freq.    3066.61  E(vib)   ...       0.00
freq.    3066.66  E(vib)   ...       0.00
freq.    3069.52  E(vib)   ...       0.00
freq.    3069.74  E(vib)   ...       0.00
freq.    3078.22  E(vib)   ...       0.00
freq.    3078.29  E(vib)   ...       0.00
freq.    3083.36  E(vib)   ...       0.00
freq.    3083.77  E(vib)   ...       0.00
freq.    3093.99  E(vib)   ...       0.00
freq.    3094.01  E(vib)   ...       0.00

------------
INNER ENERGY
------------

The inner energy is: U= E(el) + E(ZPE) + E(vib) + E(rot) + E(trans)
    E(el)   - is the total energy from the electronic structure calculation
              = E(kin-el) + E(nuc-el) + E(el-el) + E(nuc-nuc)
    E(ZPE)  - the the zero temperature vibrational energy from the frequency calculation
    E(vib)  - the the finite temperature correction to E(ZPE) due to population
              of excited vibrational states
    E(rot)  - is the rotational thermal energy
    E(trans)- is the translational thermal energy

Summary of contributions to the inner energy U:
Electronic energy                ...    -35.99804146 Eh
Zero point energy                ...      0.20563362 Eh     129.04 kcal/mol
Thermal vibrational correction   ...      0.00895984 Eh       5.62 kcal/mol
Thermal rotational correction    ...      0.00141627 Eh       0.89 kcal/mol
Thermal translational correction ...      0.00141627 Eh       0.89 kcal/mol
-----------------------------------------------------------------------
Total thermal energy                    -35.78061545 Eh

Summary of corrections to the electronic energy:
(perhaps to be used in another calculation)
Total thermal correction                  0.01179238 Eh       7.40 kcal/mol
Non-thermal (ZPE) correction              0.20563362 Eh     129.04 kcal/mol
-----------------------------------------------------------------------
Total correction                          0.21742601 Eh     136.44 kcal/mol

--------
ENTHALPY
--------

The enthalpy is H = U + kB*T
                kB is Boltzmann's constant
Total thermal energy              ...    -35.78061545 Eh
Thermal Enthalpy correction       ...      0.00094421 Eh       0.59 kcal/mol
-----------------------------------------------------------------------
Total Enthalpy                    ...    -35.77967124 Eh

WARNING (ORCA/SYM): The number of Z matrix atoms does not agree with
the number of centers in the basis set. The point group will therefore
be determined without considering basis set information.

Note: Rotational entropy computed according to Herzberg
Infrared and Raman Spectra, Chapter V,1, Van Nostrand Reinhold, 1945
Point Group:  C2, Symmetry Number:   2
Rotational constants in cm-1:     0.071614     0.009864     0.009433

Vibrational entropy computed according to the QRRHO of S. Grimme
Chem.Eur.J. 2012 18 9955 using a reference frequency of 100.0 cm-1

-------
ENTROPY
-------

The entropy contributions are T*S = T*(S(el)+S(vib)+S(rot)+S(trans))
     S(el)   - electronic entropy
     S(vib)  - vibrational entropy
     S(rot)  - rotational entropy
     S(trans)- translational entropy
The entropies will be listed as multiplied by the temperature to get
units of energy

|  1>     ! ExtOpt OptTS
|  2>     %method
|  3>       ProgExt "/home/x_rompe/bin/oqp_orca_wrapper_python"
|  4>       Ext_Params "-s 1  -b 6-31g*"
|  5>     end
|  6>     %geom
|  7>       InHess Read
|  8>       InHessName "stilbene_TS_Compound_1.hess"
|  9>     end
| 10>
| 11>                          ****END OF INPUT****
FINAL SINGLE POINT ENERGY (From external program)      -540.308008740000
                    ***********************HURRAY********************

CARTESIAN COORDINATES (ANGSTROEM)
---------------------------------
  C      0.640982    1.776820    0.350350
  C     -0.640982    1.776819   -0.350354
  C     -1.748129    0.977281   -0.017692
  C     -2.959083    1.092427   -0.743188
  C     -4.052194    0.318500   -0.430973
  C     -3.989758   -0.600538    0.613007
  C     -2.810726   -0.733400    1.340419
  C     -1.709257    0.034132    1.037488
  C      1.748129    0.977281    0.017691
  C      1.709257    0.034129   -1.037488
  C      2.810726   -0.733404   -1.340417
  C      3.989758   -0.600540   -0.613005
  C      4.052194    0.318501    0.430972
  C      2.959083    1.092429    0.743186
  H      0.767345    2.473803    1.170225
  H     -0.767344    2.473799   -1.170231
  H     -3.013349    1.804109   -1.552124
  H     -4.962873    0.425549   -0.998421
  H     -4.848115   -1.205250    0.855376
  H     -2.757584   -1.445185    2.148780
  H     -0.797759   -0.077027    1.600792
  H      0.797759   -0.077031   -1.600791
  H      2.757584   -1.445191   -2.148776
  H      4.848116   -1.205252   -0.855373
  H      4.962873    0.425552    0.998420
  H      3.013349    1.804113    1.552119

FINAL SINGLE POINT ENERGY (From external program)      -540.281094810000
                             ****ORCA TERMINATED NORMALLY****
TOTAL RUN TIME: 0 days 0 hours 19 minutes 19 seconds 110 msec
